ITEM: TIMESTEP
10
ITEM: NUMBER OF ATOMS
2
ITEM: BOX BOUNDS pp pp pp
-1.1500000000000000e+02 1.1500000000000000e+02
-1.1500000000000000e+02 1.1500000000000000e+02
-1.1500000000000000e+02 1.1500000000000000e+02
ITEM: ATOMS id type x y z c_quat[1] c_quat[2] c_quat[3] c_quat[4] c_shape[1] c_shape[2] c_shape[3] vx vy vz angmomx angmomy angmomz mol 
1 2 0.03 0 0 1 0 0 0 0.586992 0.586992 0.586992 3 0 0 0 0 0 2 
2 2 0 0 0 1 0 0 0 0.586992 0.586992 0.586992 0.0568289 0.158041 -0.13546 0 0 0 1 
